 Gaussian 09, Revision D.01,
 Gaussian 09:  AM64L-G09RevD.01 24-Apr-2013

 ---------------------------
 # HF/6-31G Opt=ModRedundant
 ---------------------------

 -----------------
 bithiophene_test1
 -----------------
 Symbolic Z-matrix:
 Charge =  0 Multiplicity = 1

 SCF Done:  E(RHF) =  -1101.23038638     A.U. after   14 cycles
 Optimization completed.
    -- Stationary point found.
 SCF Done:  E(RHF) =  -1101.23005891     A.U. after   12 cycles
 SCF Done:  E(RHF) =  -1101.23039620     A.U. after   12 cycles
 SCF Done:  E(RHF) =  -1101.23049434     A.U. after   12 cycles
 SCF Done:  E(RHF) =  -1101.23061279     A.U. after   11 cycles
 SCF Done:  E(RHF) =  -1101.23061457     A.U. after    9 cycles
 SCF Done:  E(RHF) =  -1101.23061553     A.U. after    9 cycles
 Optimization completed.
 SCF Done:  E(RHF) =  -1101.23068283     A.U. after   12 cycles
 SCF Done:  E(RHF) =  -1101.23113324     A.U. after   12 cycles
 SCF Done:  E(RHF) =  -1101.23113558     A.U. after   10 cycles
 SCF Done:  E(RHF) =  -1101.23163484     A.U. after   10 cycles
 SCF Done:  E(RHF) =  -1101.23080542     A.U. after   12 cycles
 SCF Done:  E(RHF) =  -1101.23113323     A.U. after   12 cycles
 SCF Done:  E(RHF) =  -1101.23113562     A.U. after   10 cycles
 SCF Done:  E(RHF) =  -1101.23019156     A.U. after   12 cycles
 SCF Done:  E(RHF) =  -1101.23061012     A.U. after   12 cycles
 SCF Done:  E(RHF) =  -1101.23061549     A.U. after   10 cycles
    -- Stationary point found.
 SCF Done:  E(RHF) =  -1101.22984898     A.U. after   12 cycles
 SCF Done:  E(RHF) =  -1101.23037978     A.U. after   12 cycles
 SCF Done:  E(RHF) =  -1101.23038643     A.U. after   11 cycles
 Optimization completed.
    -- Stationary point found.

                         Standard orientation:
 ---------------------------------------------------------------------
 Center     Atomic      Atomic             Coordinates (Angstroms)
 Number     Number       Type             X           Y           Z
 ---------------------------------------------------------------------
      1          6           0       -1.557518    1.411888   -0.000023
      2          6           0       -2.955697    1.075656    0.000009
      3          6           0       -3.193430   -0.245372    0.000061
      4         16           0       -1.678300   -1.188582   -0.000005
      5          6           0       -0.725699    0.346745   -0.000045
      6          6           0        0.725617    0.346628   -0.000046
      7         16           0        1.678470   -1.188610   -0.000006
      8          6           0        3.193400   -0.245181    0.000018
      9          6           0        2.955584    1.075845    0.000037
     10          6           0        1.557399    1.411851    0.000007
     11          1           0       -1.208553    2.423836    0.000097
     12          1           0       -3.732271    1.812691   -0.000049
     13          1           0       -4.130999   -0.753259    0.000051
     14          1           0        4.130935   -0.753158    0.000019
     15          1           0        3.732125    1.812898    0.000075
     16          1           0        1.208100    2.423697   -0.000127
 ---------------------------------------------------------------------

 The electronic state is 1-A.
 Alpha  occ. eigenvalues --  -91.97243 -91.97241 -11.29782 -11.29701 -11.27764
 Alpha  occ. eigenvalues --  -11.27763 -11.25145 -11.25144 -11.25050 -11.25049
 Alpha  occ. eigenvalues --   -8.98989  -8.98988  -6.67127  -6.67126  -6.66990
 Alpha  occ. eigenvalues --   -6.66988  -6.66726  -6.66725  -1.19648  -1.16849
 Alpha  occ. eigenvalues --   -1.04751  -0.99568  -0.98117  -0.96669  -0.82082
 Alpha  occ. eigenvalues --   -0.77622  -0.75381  -0.72032  -0.71600  -0.64745
 Alpha  occ. eigenvalues --   -0.59490  -0.57324  -0.56444  -0.54916  -0.52711
 Alpha  occ. eigenvalues --   -0.50509  -0.49512  -0.47499  -0.45352  -0.38874
 Alpha  occ. eigenvalues --   -0.35805  -0.34851  -0.29077
 Alpha virt. eigenvalues --    0.07458   0.15041   0.16877   0.21388   0.21694
 Alpha virt. eigenvalues --    0.22538   0.24963   0.25874   0.27973   0.28393
 Alpha virt. eigenvalues --    0.28834   0.31665   0.32316   0.36933   0.38855

 Mulliken charges:
               1
     1  C   -0.095401
     2  C   -0.127777
     3  C   -0.553949
     4  S    0.521942
     5  C   -0.409046
     6  C   -0.408892
     7  S    0.521996
     8  C   -0.553989
     9  C   -0.127728
    10  C   -0.095483
    11  H    0.215560
    12  H    0.218539
    13  H    0.230047
    14  H    0.230068
    15  H    0.218557
    16  H    0.215554
 Sum of Mulliken charges =   0.00000

 Dipole moment (field-independent basis, Debye):
    X=              0.0001    Y=              2.4636    Z=              0.0000  Tot=              2.4636
 Quadrupole moment (field-independent basis, Debye-Ang):
   XX=            -57.3394   YY=            -68.7022   ZZ=            -80.0773
   XY=             -0.0004   XZ=              0.0002   YZ=             -0.0001

 Normal termination of Gaussian 09 at Fri Oct 29 20:00:35 2021.
