 Gaussian 09, Revision D.01,
 Gaussian 09:  AM64L-G09RevD.01 24-Apr-2013

 ------------------------------
 # B3LYP/6-31G Opt=ModRedundant
 ------------------------------

 -----------------
 bithiophene_test1
 -----------------
 Symbolic Z-matrix:
 Charge =  0 Multiplicity = 1

 SCF Done:  E(RB3LYP) =  -1104.67055278     A.U. after   15 cycles
 SCF Done:  E(RB3LYP) =  -1104.67382639     A.U. after   13 cycles
 SCF Done:  E(RB3LYP) =  -1104.67393652     A.U. after   10 cycles
 SCF Done:  E(RB3LYP) =  -1104.67394782     A.U. after   10 cycles
 Optimization completed.
    -- Stationary point found.
 SCF Done:  E(RB3LYP) =  -1104.67373237     A.U. after   13 cycles
 SCF Done:  E(RB3LYP) =  -1104.67398126     A.U. after   12 cycles
 SCF Done:  E(RB3LYP) =  -1104.67403894     A.U. after   12 cycles
 SCF Done:  E(RB3LYP) =  -1104.67409280     A.U. after   11 cycles
 SCF Done:  E(RB3LYP) =  -1104.67409374     A.U. after    8 cycles
 SCF Done:  E(RB3LYP) =  -1104.67409398     A.U. after    7 cycles
 Optimization completed.
 SCF Done:  E(RB3LYP) =  -1104.67441866     A.U. after    8 cycles
 SCF Done:  E(RB3LYP) =  -1104.67407086     A.U. after   12 cycles
 SCF Done:  E(RB3LYP) =  -1104.67430557     A.U. after   12 cycles
 SCF Done:  E(RB3LYP) =  -1104.67430728     A.U. after    9 cycles
 SCF Done:  E(RB3LYP) =  -1104.67380692     A.U. after   12 cycles
 SCF Done:  E(RB3LYP) =  -1104.67409058     A.U. after   12 cycles
 SCF Done:  E(RB3LYP) =  -1104.67409393     A.U. after    9 cycles
    -- Stationary point found.
 SCF Done:  E(RB3LYP) =  -1104.67363753     A.U. after   13 cycles
 SCF Done:  E(RB3LYP) =  -1104.67398627     A.U. after   13 cycles
 SCF Done:  E(RB3LYP) =  -1104.67399066     A.U. after    9 cycles
 Optimization completed.
    -- Stationary point found.

                         Standard orientation:
 ---------------------------------------------------------------------
 Center     Atomic      Atomic             Coordinates (Angstroms)
 Number     Number       Type             X           Y           Z
 ---------------------------------------------------------------------
      1          6           0        1.578738   -1.431778    0.000019
      2          6           0        2.968557   -1.088312    0.000033
      3          6           0        3.208421    0.255688    0.000045
      4         16           0        1.677989    1.200433   -0.000020
      5          6           0        0.721500   -0.353477   -0.000043
      6          6           0       -0.721495   -0.353482   -0.000034
      7         16           0       -1.677968    1.200418    0.000003
      8          6           0       -3.208469    0.255704    0.000040
      9          6           0       -2.968546   -1.088277    0.000031
     10          6           0       -1.578741   -1.431786   -0.000035
     11          1           0        1.226094   -2.455798    0.000104
     12          1           0        3.760431   -1.827444    0.000062
     13          1           0        4.148815    0.783604   -0.000063
     14          1           0       -4.148906    0.783534    0.000105
     15          1           0       -3.760450   -1.827391   -0.000007
     16          1           0       -1.226116   -2.455797   -0.000259
 ---------------------------------------------------------------------

 The electronic state is 1-A.
 Alpha  occ. eigenvalues --  -88.89451 -88.89449 -10.23885 -10.23857 -10.22165
 Alpha  occ. eigenvalues --  -10.22164 -10.19825 -10.19824 -10.19759 -10.19758
 Alpha  occ. eigenvalues --   -7.97295  -7.97290  -5.93641  -5.93639  -5.93241
 Alpha  occ. eigenvalues --   -5.93238  -5.92709  -5.92707  -0.89267  -0.87067
 Alpha  occ. eigenvalues --   -0.77094  -0.74547  -0.73272  -0.70524  -0.60800
 Alpha  occ. eigenvalues --   -0.57497  -0.55313  -0.52968  -0.52530  -0.47308
 Alpha  occ. eigenvalues --   -0.42474  -0.41833  -0.40533  -0.39809  -0.39684
 Alpha  occ. eigenvalues --   -0.36638  -0.36304  -0.35013  -0.33295  -0.28046
 Alpha  occ. eigenvalues --   -0.26027  -0.25220  -0.20556
 Alpha virt. eigenvalues --   -0.05403  -0.00016   0.01798   0.05541   0.05811
 Alpha virt. eigenvalues --    0.06280   0.10217   0.10917   0.11016   0.11437
 Alpha virt. eigenvalues --    0.14091   0.16816   0.16881   0.21351   0.23446

 Mulliken charges:
               1
     1  C   -0.028572
     2  C   -0.066365
     3  C   -0.454657
     4  S    0.436995
     5  C   -0.340897
     6  C   -0.340937
     7  S    0.436975
     8  C   -0.454631
     9  C   -0.066390
    10  C   -0.028535
    11  H    0.140932
    12  H    0.145231
    13  H    0.167350
    14  H    0.167344
    15  H    0.145226
    16  H    0.140930
 Sum of Mulliken charges =   0.00000

 Dipole moment (field-independent basis, Debye):
    X=              0.0001    Y=             -1.8061    Z=             -0.0001  Tot=              1.8061
 Quadrupole moment (field-independent basis, Debye-Ang):
   XX=            -57.8428   YY=            -67.4607   ZZ=            -77.7914
   XY=              0.0000   XZ=             -0.0003   YZ=              0.0003

 Normal termination of Gaussian 09 at Fri Oct 29 19:36:02 2021.
