 Gaussian 09, Revision D.01,
 Gaussian 09:  AM64L-G09RevD.01 24-Apr-2013

 -------------------------
 #P B3LYP/6-31+G* opt freq
 -------------------------

 -----------
 bithiophene
 -----------
 Symbolic Z-matrix:
 Charge =  0 Multiplicity = 1

 SCF Done:  E(RB3LYP) =  -1104.81055100     A.U. after   14 cycles
 SCF Done:  E(RB3LYP) =  -1104.82892451     A.U. after   14 cycles
 SCF Done:  E(RB3LYP) =  -1104.83042893     A.U. after   12 cycles
 SCF Done:  E(RB3LYP) =  -1104.83049147     A.U. after   11 cycles
 SCF Done:  E(RB3LYP) =  -1104.83049455     A.U. after   10 cycles
 Optimization completed.
    -- Stationary point found.
 Normal termination of Gaussian 09 at Fri Oct 15 18:40:15 2021.

 ---------------------------------------------------------------------
 #P Geom=AllCheck Guess=TCheck SCRF=Check GenChk RB3LYP/6-31+G(d) Freq
 ---------------------------------------------------------------------

 Structure from the checkpoint file:  "bithi.chk"
 -----------
 bithiophene
 -----------
 Charge =  0 Multiplicity = 1

                         Standard orientation:
 ---------------------------------------------------------------------
 Center     Atomic      Atomic             Coordinates (Angstroms)
 Number     Number       Type             X           Y           Z
 ---------------------------------------------------------------------
      1          6           0       -1.720750    0.858038    0.000000
      2          6           0       -3.033817    0.305341    0.000000
      3          6           0       -3.033817   -1.064501    0.000000
      4         16           0       -1.420410   -1.703115    0.000000
      5          6           0       -0.720070   -0.093525    0.000000
      6          6           0        0.720067    0.093534    0.000000
      7         16           0        1.420415    1.703110    0.000000
      8          6           0        3.033815    1.064506    0.000000
      9          6           0        3.033815   -0.305340    0.000000
     10          6           0        1.720751   -0.858036    0.000000
     11          1           0       -1.521404    1.924835    0.000000
     12          1           0       -3.939302    0.902917    0.000000
     13          1           0       -3.880156   -1.738756    0.000000
     14          1           0        3.880165    1.738746    0.000000
     15          1           0        3.939286   -0.902937    0.000000
     16          1           0        1.521387   -1.924830    0.000000
 ---------------------------------------------------------------------

 SCF Done:  E(RB3LYP) =  -1104.83049455     A.U. after    1 cycles

 The electronic state is 1-A'.
 Alpha  occ. eigenvalues --  -88.91956 -88.91956 -10.23959 -10.23922 -10.22523
 Alpha  occ. eigenvalues --  -10.22522 -10.20482 -10.20482 -10.20374 -10.20374
 Alpha  occ. eigenvalues --   -7.97912  -7.97911  -5.94340  -5.94338  -5.93966
 Alpha  occ. eigenvalues --   -5.93966  -5.93609  -5.93609  -0.90057  -0.87828
 Alpha  occ. eigenvalues --   -0.77204  -0.75012  -0.73704  -0.70591  -0.60477
 Alpha  occ. eigenvalues --   -0.58213  -0.55137  -0.53506  -0.52838  -0.47900
 Alpha  occ. eigenvalues --   -0.42113  -0.41946  -0.40727  -0.40540  -0.40250
 Alpha  occ. eigenvalues --   -0.37928  -0.37380  -0.35830  -0.34316  -0.28411
 Alpha  occ. eigenvalues --   -0.26519  -0.25784  -0.21076
 Alpha virt. eigenvalues --   -0.05932   0.00047   0.00098   0.00100   0.01022
 Alpha virt. eigenvalues --    0.01572   0.02691   0.02992   0.03427   0.04225
 Alpha virt. eigenvalues --    0.04309   0.04703   0.05190   0.05675   0.06446

 Mulliken charges:
               1
     1  C    0.372751
     2  C   -0.475707
     3  C   -0.254764
     4  S   -0.031029
     5  C   -0.212758
     6  C   -0.212788
     7  S   -0.031018
     8  C   -0.254768
     9  C   -0.475706
    10  C    0.372749
    11  H    0.191773
    12  H    0.192005
    13  H    0.217742
    14  H    0.217743
    15  H    0.192004
    16  H    0.191772
 Sum of Mulliken charges =   0.00000

 Dipole moment (field-independent basis, Debye):
    X=              0.0000    Y=              0.0000    Z=              0.0000  Tot=              0.0000
 Quadrupole moment (field-independent basis, Debye-Ang):
   XX=            -60.7270   YY=            -68.2700   ZZ=            -79.0475
   XY=              0.5279   XZ=              0.0000   YZ=              0.0000

  Exact polarizability: 195.493  11.608 134.713   0.001   0.001  71.889
 Approx polarizability: 312.248   3.899 251.241   0.000   0.000 110.202

 ******    1 imaginary frequencies (negative Signs) ******

                      1                      2                      3
                     A"                     A"                     A'
 Frequencies --    -30.3116               114.7069               137.0426
 Red. masses --      6.1421                 4.8217                 5.5330
 Frc consts  --      0.0033                 0.0374                 0.0612
 IR Inten    --      0.4520                 2.1058                 0.1388

                      4                      5                      6
                     A"                     A'                     A'
 Frequencies --    261.0386               291.3346               380.3590
 Red. masses --      5.3143                14.4614                 6.4199
 Frc consts  --      0.2134                 0.7232                 0.5472
 IR Inten    --      0.0000                 0.0000                 0.0000

                      7                      8                      9
                     A"                     A"                     A"
 Frequencies --    453.8186               527.5945               566.8691
 Red. masses --      5.6435                 4.5379                 3.1497
 Frc consts  --      0.6848                 0.7442                 0.5963
 IR Inten    --      4.2151                 0.0000                 0.0005

                     10                     11                     12
                     A"                     A'                     A'
 Frequencies --    588.0094               606.9480               681.1047
 Red. masses --      3.2416                11.8833                 8.4134
 Frc consts  --      0.6604                 2.5792                 2.2996
 IR Inten    --      0.0000                 1.8567                 0.0000

                     13                     14                     15
                     A"                     A"                     A'
 Frequencies --    690.5864               694.7778               739.4056
 Red. masses --      1.1744                 1.1540                 7.4846
 Frc consts  --      0.3300                 0.3282                 2.4109
 IR Inten    --    154.4833                 0.0000                 0.2695

                     16                     17                     18
                     A'                     A"                     A'
 Frequencies --    740.8571               822.5034               829.7346
 Red. masses --      6.6510                 1.2892                 5.1605
 Frc consts  --      2.1508                 0.5138                 2.0932
 IR Inten    --      0.0000                32.4958                63.6346

                     19                     20                     21
                     A"                     A'                     A'
 Frequencies --    832.7662               861.4893               901.2053
 Red. masses --      1.4001                 4.3657                 6.3045
 Frc consts  --      0.5721                 1.9090                 3.0168
 IR Inten    --      0.0000                 0.0000                 1.2561

                     22                     23                     24
                     A"                     A"                     A'
 Frequencies --    907.7718               910.5201              1078.3745
 Red. masses --      1.3283                 1.3363                 1.5653
 Frc consts  --      0.6449                 0.6527                 1.0725
 IR Inten    --      0.0151                 0.0000                 0.0000

                     25                     26                     27
                     A'                     A'                     A'
 Frequencies --   1081.9660              1111.8605              1116.6181
 Red. masses --      1.7837                 1.1527                 1.1119
 Frc consts  --      1.2303                 0.8396                 0.8168
 IR Inten    --     12.8972                 0.0000                 5.1164

                     28                     29                     30
                     A'                     A'                     A'
 Frequencies --   1237.9090              1238.8914              1288.2920
 Red. masses --      1.5337                 7.2677                 1.4341
 Frc consts  --      1.3847                 6.5723                 1.4023
 IR Inten    --     14.7666                 0.0000                 0.0000

                     31                     32                     33
                     A'                     A'                     A'
 Frequencies --   1363.6195              1408.9566              1475.2696
 Red. masses --      2.1393                 2.4695                 5.5940
 Frc consts  --      2.3437                 2.8884                 7.1732
 IR Inten    --      2.2299                 0.0000                18.1943

                     34                     35                     36
                     A'                     A'                     A'
 Frequencies --   1493.7718              1555.7766              1596.4945
 Red. masses --      6.1821                 4.2183                 6.0554
 Frc consts  --      8.1274                 6.0156                 9.0934
 IR Inten    --      0.0000                 9.6371                 0.0000

                     37                     38                     39
                     A'                     A'                     A'
 Frequencies --   3214.5980              3214.8109              3228.9378
 Red. masses --      1.0888                 1.0889                 1.0945
 Frc consts  --      6.6292                 6.6303                 6.7234
 IR Inten    --      0.0004                19.2541                10.7449

                     40                     41                     42
                     A'                     A'                     A'
 Frequencies --   3229.1929              3268.6100              3268.6191
 Red. masses --      1.0950                 1.0970                 1.0969
 Frc consts  --      6.7272                 6.9050                 6.9048
 IR Inten    --      0.0003                 0.7366                 0.0000

 - Thermochemistry -
 -------------------
 Temperature   298.150 Kelvin.  Pressure   1.00000 Atm.
 Atom     1 has atomic number  6 and mass  12.00000

 Molecular mass:   165.99109 amu.
 Principal axes and moments of inertia in atomic units:
                           1         2         3
     Eigenvalues --   675.828642783.100473458.92911
           X            0.94892  -0.31551   0.00000
           Y            0.31551   0.94892   0.00000
           Z            0.00000   0.00000   1.00000
 This molecule is an asymmetric top.
 Rotational symmetry number  1.
 Warning -- assumption of classical behavior for rotation
           may cause significant error
 Rotational temperatures (Kelvin)      0.12816     0.03112     0.02504
 Rotational constants (GHZ):           2.67041     0.64846     0.52176
    1 imaginary frequencies ignored.
 Zero-point vibrational energy     299144.2 (Joules/Mol)
                                   71.49719 (Kcal/Mol)
 Warning -- explicit consideration of  10 degrees of freedom as
           vibrations may cause significant error
 Vibrational temperatures:    165.04   197.17   375.58   419.16   547.25
          (Kelvin)            652.94   759.09   815.60   846.01   873.26
                              979.96   993.60   999.63  1063.84  1065.93
                             1183.40  1193.80  1198.16  1239.49  1296.63
                             1306.08  1310.03  1551.54  1556.71  1599.72
                             1606.56  1781.07  1782.49  1853.56  1961.94
                             2027.17  2122.58  2149.20  2238.41  2297.00
                             4625.08  4625.39  4645.72  4646.08  4702.79
                             4702.81

 Zero-point correction=                           0.113938 (Hartree/Particle)
 Thermal correction to Energy=                    0.121496
 Thermal correction to Enthalpy=                  0.122440
 Thermal correction to Gibbs Free Energy=         0.080860
 Sum of electronic and zero-point Energies=          -1104.716557
 Sum of electronic and thermal Energies=             -1104.708999
 Sum of electronic and thermal Enthalpies=           -1104.708054
 Sum of electronic and thermal Free Energies=        -1104.749635

                     E (Thermal)             CV                S
                      KCal/Mol        Cal/Mol-Kelvin    Cal/Mol-Kelvin
 Total                   76.240             30.528             87.513
 Electronic               0.000              0.000              0.000
 Translational            0.889              2.981             41.229
 Rotational               0.889              2.981             30.254
 Vibrational             74.462             24.566             16.030
 Vibration     1          0.608              1.937              3.188
 Vibration     2          0.614              1.916              2.845
 Vibration     3          0.669              1.744              1.655
 Vibration     4          0.687              1.690              1.466
 Vibration     5          0.750              1.512              1.038
 Vibration     6          0.812              1.352              0.784
 Vibration     7          0.883              1.189              0.593
 Vibration     8          0.923              1.103              0.510
 Vibration     9          0.945              1.057              0.471
 Vibration    10          0.966              1.017              0.438

 Optimization completed.
    -- Stationary point found.
 Normal termination of Gaussian 09 at Fri Oct 15 18:48:02 2021.
